unknown system                          
   1.00000000000000     
     3.970066    0.000000    0.000000
     0.000000    3.970066    0.000000
     0.000000    0.000000    3.711479
   Mn   Pt
     2     2
Direct
  0.000000  0.000000  0.000000
  0.500000  0.500000  0.000000
  0.000000  0.500000  0.500000
  0.500000  0.000000  0.500000
 
   42   42   40
 0.10179800146E+04 0.98646918574E+03 0.89568045334E+03 0.75699606775E+03 0.58918589164E+03
 0.41626884661E+03 0.26249857977E+03 0.14582910457E+03 0.72605472260E+02 0.36689472197E+02
 0.23320026983E+02 0.17385503817E+02 0.13842576852E+02 0.11888254743E+02 0.10730729411E+02
 0.10053087131E+02 0.95935800746E+01 0.92920737311E+01 0.90858423761E+01 0.89742473641E+01
 0.89087362805E+01 0.88961248090E+01 0.89087362805E+01 0.89742473641E+01 0.90858423761E+01
 0.92920737311E+01 0.95935800746E+01 0.10053087131E+02 0.10730729411E+02 0.11888254743E+02
 0.13842576852E+02 0.17385503817E+02 0.23320026983E+02 0.36689472197E+02 0.72605472260E+02
 0.14582910457E+03 0.26249857977E+03 0.41626884661E+03 0.58918589164E+03 0.75699606775E+03
 0.89568045334E+03 0.98646918574E+03 0.98646918574E+03 0.95560639537E+03 0.86676700551E+03
 0.73130991435E+03 0.56783739052E+03 0.39997533454E+03 0.25138044744E+03 0.13928179593E+03
 0.69441559236E+02 0.35554891771E+02 0.22961793563E+02 0.17199814933E+02 0.13758585000E+02
 0.11847968312E+02 0.10721675037E+02 0.10048869934E+02 0.95978706241E+01 0.93117341085E+01
 0.91103957082E+01 0.89930774491E+01 0.89237951339E+01 0.89087362805E+01 0.89237951339E+01
 0.89930774491E+01 0.91103957082E+01 0.93117341085E+01 0.95978706241E+01 0.10048869934E+02
 0.10721675037E+02 0.11847968312E+02 0.13758585000E+02 0.17199814933E+02 0.22961793563E+02
 0.35554891771E+02 0.69441559236E+02 0.13928179593E+03 0.25138044744E+03 0.39997533454E+03
 0.56783739052E+03 0.73130991435E+03 0.86676700551E+03 0.95560639537E+03 0.89568045334E+03
 0.86676700551E+03 0.78374127942E+03 0.65787402094E+03 0.50719441086E+03 0.35413093658E+03
 0.22039534828E+03 0.12126255517E+03 0.60917272963E+02 0.32555264596E+02 0.21970810393E+02
 0.16669586895E+02 0.13521765318E+02 0.11736846034E+02 0.10690698840E+02 0.10049932688E+02
 0.96312933579E+01 0.93391686282E+01 0.91556559218E+01 0.90449454225E+01 0.89930774491E+01
 0.89742473641E+01 0.89930774491E+01 0.90449454225E+01 0.91556559218E+01 0.93391686282E+01
 0.96312933579E+01 0.10049932688E+02 0.10690698840E+02 0.11736846034E+02 0.13521765318E+02
 0.16669586895E+02 0.21970810393E+02 0.32555264596E+02 0.60917272963E+02 0.12126255517E+03
 0.22039534828E+03 0.35413093658E+03 0.50719441086E+03 0.65787402094E+03 0.78374127942E+03
 0.86676700551E+03 0.75699606775E+03 0.73130991435E+03 0.65787402094E+03 0.54756216241E+03
 0.41723647025E+03 0.28716674518E+03 0.17609416180E+03 0.96220638919E+02 0.49524191849E+02
 0.28696242755E+02 0.20529835166E+02 0.15882740976E+02 0.13170970650E+02 0.11575972101E+02
 0.10657771083E+02 0.10059476182E+02 0.96869911201E+01 0.94257253474E+01 0.92679175475E+01
 0.91556559218E+01 0.91103957082E+01 0.90858423761E+01 0.91103957082E+01 0.91556559218E+01
 0.92679175475E+01 0.94257253474E+01 0.96869911201E+01 0.10059476182E+02 0.10657771083E+02
 0.11575972101E+02 0.13170970650E+02 0.15882740976E+02 0.20529835166E+02 0.28696242755E+02
 0.49524191849E+02 0.96220638919E+02 0.17609416180E+03 0.28716674518E+03 0.41723647025E+03
 0.54756216241E+03 0.65787402094E+03 0.73130991435E+03 0.58918589164E+03 0.56783739052E+03
 0.50719441086E+03 0.41723647025E+03 0.31293682852E+03 0.21144133741E+03 0.12761166851E+03
 0.69984014826E+02 0.38344715718E+02 0.24950942446E+02 0.18822836567E+02 0.14977391661E+02
 0.12753879629E+02 0.11410771718E+02 0.10628224183E+02 0.10112572154E+02 0.97933243522E+01
 0.95555625206E+01 0.94257253474E+01 0.93391686282E+01 0.93117341085E+01 0.92920737311E+01
 0.93117341085E+01 0.93391686282E+01 0.94257253474E+01 0.95555625206E+01 0.97933243522E+01
 0.10112572154E+02 0.10628224183E+02 0.11410771718E+02 0.12753879629E+02 0.14977391661E+02
 0.18822836567E+02 0.24950942446E+02 0.38344715718E+02 0.69984014826E+02 0.12761166851E+03
 0.21144133741E+03 0.31293682852E+03 0.41723647025E+03 0.50719441086E+03 0.56783739052E+03
 0.41626884661E+03 0.39997533454E+03 0.35413093658E+03 0.28716674518E+03 0.21144133741E+03
 0.14019061160E+03 0.84112960205E+02 0.47927771627E+02 0.29676212440E+02 0.21718837228E+02
 0.17029905616E+02 0.14095417411E+02 0.12329809347E+02 0.11281831959E+02 0.10633954384E+02
 0.10223716364E+02 0.99514083282E+01 0.97933243522E+01 0.96869911200E+01 0.96312933579E+01
 0.95978706241E+01 0.95935800746E+01 0.95978706241E+01 0.96312933579E+01 0.96869911200E+01
 0.97933243522E+01 0.99514083282E+01 0.10223716364E+02 0.10633954384E+02 0.11281831959E+02
 0.12329809347E+02 0.14095417411E+02 0.17029905616E+02 0.21718837228E+02 0.29676212440E+02
 0.47927771627E+02 0.84112960205E+02 0.14019061160E+03 0.21144133741E+03 0.28716674518E+03
 0.35413093658E+03 0.39997533454E+03 0.26249857977E+03 0.25138044744E+03 0.22039534828E+03
 0.17609416180E+03 0.12761166851E+03 0.84112960205E+02 0.52000733302E+02 0.33054287575E+02
 0.23958111800E+02 0.18853940004E+02 0.15420626628E+02 0.13296891911E+02 0.11986728281E+02
 0.11205947647E+02 0.10711375794E+02 0.10415004389E+02 0.10223716364E+02 0.10112572154E+02
 0.10059476182E+02 0.10049932688E+02 0.10048869934E+02 0.10053087131E+02 0.10048869934E+02
 0.10049932688E+02 0.10059476182E+02 0.10112572154E+02 0.10223716364E+02 0.10415004389E+02
 0.10711375794E+02 0.11205947647E+02 0.11986728281E+02 0.13296891911E+02 0.15420626628E+02
 0.18853940004E+02 0.23958111800E+02 0.33054287575E+02 0.52000733302E+02 0.84112960205E+02
 0.12761166851E+03 0.17609416180E+03 0.22039534828E+03 0.25138044744E+03 0.14582910457E+03
 0.13928179593E+03 0.12126255517E+03 0.96220638919E+02 0.69984014826E+02 0.47927771627E+02
 0.33054287575E+02 0.24834548138E+02 0.19926429980E+02 0.16425666205E+02 0.14122062166E+02
 0.12651766362E+02 0.11762121264E+02 0.11214147040E+02 0.10898748526E+02 0.10711375794E+02
 0.10633954384E+02 0.10628224183E+02 0.10657771083E+02 0.10690698840E+02 0.10721675037E+02
 0.10730729411E+02 0.10721675037E+02 0.10690698840E+02 0.10657771083E+02 0.10628224183E+02
 0.10633954384E+02 0.10711375794E+02 0.10898748526E+02 0.11214147040E+02 0.11762121264E+02
 0.12651766362E+02 0.14122062166E+02 0.16425666205E+02 0.19926429980E+02 0.24834548138E+02
 0.33054287575E+02 0.47927771627E+02 0.69984014826E+02 0.96220638919E+02 0.12126255517E+03
 0.13928179593E+03 0.72605472260E+02 0.69441559236E+02 0.60917272963E+02 0.49524191849E+02
 0.38344715718E+02 0.29676212440E+02 0.23958111800E+02 0.19926429980E+02 0.16802630640E+02
 0.14604378417E+02 0.13134704442E+02 0.12215883387E+02 0.11660284393E+02 0.11357254957E+02
 0.11214147040E+02 0.11205947647E+02 0.11281831959E+02 0.11410771718E+02 0.11575972101E+02
 0.11736846034E+02 0.11847968312E+02 0.11888254743E+02 0.11847968312E+02 0.11736846034E+02
 0.11575972101E+02 0.11410771718E+02 0.11281831959E+02 0.11205947647E+02 0.11214147040E+02
 0.11357254957E+02 0.11660284393E+02 0.12215883387E+02 0.13134704442E+02 0.14604378417E+02
 0.16802630640E+02 0.19926429980E+02 0.23958111800E+02 0.29676212440E+02 0.38344715718E+02
 0.49524191849E+02 0.60917272963E+02 0.69441559236E+02 0.36689472197E+02 0.35554891771E+02
 0.32555264596E+02 0.28696242755E+02 0.24950942446E+02 0.21718837228E+02 0.18853940004E+02
 0.16425666205E+02 0.14604378417E+02 0.13311777064E+02 0.12473567456E+02 0.11970493234E+02
 0.11722409340E+02 0.11660284393E+02 0.11762121264E+02 0.11986728281E+02 0.12329809347E+02
 0.12753879629E+02 0.13170970650E+02 0.13521765318E+02 0.13758585000E+02 0.13842576852E+02
 0.13758585000E+02 0.13521765318E+02 0.13170970650E+02 0.12753879629E+02 0.12329809347E+02
 0.11986728281E+02 0.11762121264E+02 0.11660284393E+02 0.11722409340E+02 0.11970493234E+02
 0.12473567456E+02 0.13311777064E+02 0.14604378417E+02 0.16425666205E+02 0.18853940004E+02
 0.21718837228E+02 0.24950942446E+02 0.28696242755E+02 0.32555264596E+02 0.35554891771E+02
 0.23320026983E+02 0.22961793563E+02 0.21970810393E+02 0.20529835166E+02 0.18822836567E+02
 0.17029905616E+02 0.15420626628E+02 0.14122062166E+02 0.13134704442E+02 0.12473567456E+02
 0.12081917350E+02 0.11925693003E+02 0.11970493234E+02 0.12215883387E+02 0.12651766362E+02
 0.13296891911E+02 0.14095417411E+02 0.14977391661E+02 0.15882740976E+02 0.16669586895E+02
 0.17199814933E+02 0.17385503817E+02 0.17199814933E+02 0.16669586895E+02 0.15882740976E+02
 0.14977391661E+02 0.14095417411E+02 0.13296891911E+02 0.12651766362E+02 0.12215883387E+02
 0.11970493234E+02 0.11925693003E+02 0.12081917350E+02 0.12473567456E+02 0.13134704442E+02
 0.14122062166E+02 0.15420626628E+02 0.17029905616E+02 0.18822836567E+02 0.20529835166E+02
 0.21970810393E+02 0.22961793563E+02 0.17385503817E+02 0.17199814933E+02 0.16669586895E+02
 0.15882740976E+02 0.14977391661E+02 0.14095417411E+02 0.13296891911E+02 0.12651766362E+02
 0.12215883387E+02 0.11970493234E+02 0.11925693003E+02 0.12081917350E+02 0.12473567456E+02
 0.13134704442E+02 0.14122062166E+02 0.15420626628E+02 0.17029905616E+02 0.18822836567E+02
 0.20529835166E+02 0.21970810393E+02 0.22961793563E+02 0.23320026983E+02 0.22961793563E+02
 0.21970810393E+02 0.20529835166E+02 0.18822836567E+02 0.17029905616E+02 0.15420626628E+02
 0.14122062166E+02 0.13134704442E+02 0.12473567456E+02 0.12081917350E+02 0.11925693003E+02
 0.11970493234E+02 0.12215883387E+02 0.12651766362E+02 0.13296891911E+02 0.14095417411E+02
 0.14977391661E+02 0.15882740976E+02 0.16669586895E+02 0.17199814933E+02 0.13842576852E+02
 0.13758585000E+02 0.13521765318E+02 0.13170970650E+02 0.12753879629E+02 0.12329809347E+02
 0.11986728281E+02 0.11762121264E+02 0.11660284393E+02 0.11722409340E+02 0.11970493234E+02
 0.12473567456E+02 0.13311777064E+02 0.14604378417E+02 0.16425666205E+02 0.18853940004E+02
 0.21718837228E+02 0.24950942446E+02 0.28696242755E+02 0.32555264596E+02 0.35554891771E+02
 0.36689472197E+02 0.35554891771E+02 0.32555264596E+02 0.28696242755E+02 0.24950942446E+02
 0.21718837228E+02 0.18853940004E+02 0.16425666205E+02 0.14604378417E+02 0.13311777064E+02
 0.12473567456E+02 0.11970493234E+02 0.11722409340E+02 0.11660284393E+02 0.11762121264E+02
 0.11986728281E+02 0.12329809347E+02 0.12753879629E+02 0.13170970650E+02 0.13521765318E+02
 0.13758585000E+02 0.11888254743E+02 0.11847968312E+02 0.11736846034E+02 0.11575972101E+02
 0.11410771718E+02 0.11281831959E+02 0.11205947647E+02 0.11214147040E+02 0.11357254957E+02
 0.11660284393E+02 0.12215883387E+02 0.13134704442E+02 0.14604378417E+02 0.16802630640E+02
 0.19926429980E+02 0.23958111800E+02 0.29676212440E+02 0.38344715718E+02 0.49524191849E+02
 0.60917272963E+02 0.69441559236E+02 0.72605472260E+02 0.69441559236E+02 0.60917272963E+02
 0.49524191849E+02 0.38344715718E+02 0.29676212440E+02 0.23958111800E+02 0.19926429980E+02
 0.16802630640E+02 0.14604378417E+02 0.13134704442E+02 0.12215883387E+02 0.11660284393E+02
 0.11357254957E+02 0.11214147040E+02 0.11205947647E+02 0.11281831959E+02 0.11410771718E+02
 0.11575972101E+02 0.11736846034E+02 0.11847968312E+02 0.10730729411E+02 0.10721675037E+02
 0.10690698840E+02 0.10657771083E+02 0.10628224183E+02 0.10633954384E+02 0.10711375794E+02
 0.10898748526E+02 0.11214147040E+02 0.11762121264E+02 0.12651766362E+02 0.14122062166E+02
 0.16425666205E+02 0.19926429980E+02 0.24834548138E+02 0.33054287575E+02 0.47927771627E+02
 0.69984014826E+02 0.96220638919E+02 0.12126255517E+03 0.13928179593E+03 0.14582910457E+03
 0.13928179593E+03 0.12126255517E+03 0.96220638919E+02 0.69984014826E+02 0.47927771627E+02
 0.33054287575E+02 0.24834548138E+02 0.19926429980E+02 0.16425666205E+02 0.14122062166E+02
 0.12651766362E+02 0.11762121264E+02 0.11214147040E+02 0.10898748526E+02 0.10711375794E+02
 0.10633954384E+02 0.10628224183E+02 0.10657771083E+02 0.10690698840E+02 0.10721675037E+02
 0.10053087131E+02 0.10048869934E+02 0.10049932688E+02 0.10059476182E+02 0.10112572154E+02
 0.10223716364E+02 0.10415004389E+02 0.10711375794E+02 0.11205947647E+02 0.11986728281E+02
 0.13296891911E+02 0.15420626628E+02 0.18853940004E+02 0.23958111800E+02 0.33054287575E+02
 0.52000733302E+02 0.84112960205E+02 0.12761166851E+03 0.17609416180E+03 0.22039534828E+03
 0.25138044744E+03 0.26249857977E+03 0.25138044744E+03 0.22039534828E+03 0.17609416180E+03
 0.12761166851E+03 0.84112960205E+02 0.52000733302E+02 0.33054287575E+02 0.23958111800E+02
 0.18853940004E+02 0.15420626628E+02 0.13296891911E+02 0.11986728281E+02 0.11205947647E+02
 0.10711375794E+02 0.10415004389E+02 0.10223716364E+02 0.10112572154E+02 0.10059476182E+02
 0.10049932688E+02 0.10048869934E+02 0.95935800746E+01 0.95978706241E+01 0.96312933579E+01
 0.96869911201E+01 0.97933243522E+01 0.99514083282E+01 0.10223716364E+02 0.10633954384E+02
 0.11281831959E+02 0.12329809347E+02 0.14095417411E+02 0.17029905616E+02 0.21718837228E+02
 0.29676212440E+02 0.47927771627E+02 0.84112960205E+02 0.14019061160E+03 0.21144133741E+03
 0.28716674518E+03 0.35413093658E+03 0.39997533454E+03 0.41626884661E+03 0.39997533454E+03
 0.35413093658E+03 0.28716674518E+03 0.21144133741E+03 0.14019061160E+03 0.84112960205E+02
 0.47927771627E+02 0.29676212440E+02 0.21718837228E+02 0.17029905616E+02 0.14095417411E+02
 0.12329809347E+02 0.11281831959E+02 0.10633954384E+02 0.10223716364E+02 0.99514083282E+01
 0.97933243522E+01 0.96869911201E+01 0.96312933579E+01 0.95978706241E+01 0.92920737311E+01
 0.93117341085E+01 0.93391686282E+01 0.94257253474E+01 0.95555625206E+01 0.97933243522E+01
 0.10112572154E+02 0.10628224183E+02 0.11410771718E+02 0.12753879629E+02 0.14977391661E+02
 0.18822836567E+02 0.24950942446E+02 0.38344715718E+02 0.69984014826E+02 0.12761166851E+03
 0.21144133741E+03 0.31293682852E+03 0.41723647025E+03 0.50719441086E+03 0.56783739052E+03
 0.58918589164E+03 0.56783739052E+03 0.50719441086E+03 0.41723647025E+03 0.31293682852E+03
 0.21144133741E+03 0.12761166851E+03 0.69984014826E+02 0.38344715718E+02 0.24950942446E+02
 0.18822836567E+02 0.14977391661E+02 0.12753879629E+02 0.11410771718E+02 0.10628224183E+02
 0.10112572154E+02 0.97933243522E+01 0.95555625206E+01 0.94257253474E+01 0.93391686282E+01
 0.93117341085E+01 0.90858423761E+01 0.91103957082E+01 0.91556559218E+01 0.92679175475E+01
 0.94257253474E+01 0.96869911201E+01 0.10059476182E+02 0.10657771083E+02 0.11575972101E+02
 0.13170970650E+02 0.15882740976E+02 0.20529835166E+02 0.28696242755E+02 0.49524191849E+02
 0.96220638919E+02 0.17609416180E+03 0.28716674518E+03 0.41723647025E+03 0.54756216241E+03
 0.65787402094E+03 0.73130991435E+03 0.75699606775E+03 0.73130991435E+03 0.65787402094E+03
 0.54756216241E+03 0.41723647025E+03 0.28716674518E+03 0.17609416180E+03 0.96220638919E+02
 0.49524191849E+02 0.28696242755E+02 0.20529835166E+02 0.15882740976E+02 0.13170970650E+02
 0.11575972101E+02 0.10657771083E+02 0.10059476182E+02 0.96869911201E+01 0.94257253474E+01
 0.92679175475E+01 0.91556559218E+01 0.91103957082E+01 0.89742473641E+01 0.89930774491E+01
 0.90449454225E+01 0.91556559218E+01 0.93391686282E+01 0.96312933579E+01 0.10049932688E+02
 0.10690698840E+02 0.11736846034E+02 0.13521765318E+02 0.16669586895E+02 0.21970810393E+02
 0.32555264596E+02 0.60917272963E+02 0.12126255517E+03 0.22039534828E+03 0.35413093658E+03
 0.50719441086E+03 0.65787402094E+03 0.78374127942E+03 0.86676700551E+03 0.89568045334E+03
 0.86676700551E+03 0.78374127942E+03 0.65787402094E+03 0.50719441086E+03 0.35413093658E+03
 0.22039534828E+03 0.12126255517E+03 0.60917272963E+02 0.32555264596E+02 0.21970810393E+02
 0.16669586895E+02 0.13521765318E+02 0.11736846034E+02 0.10690698840E+02 0.10049932688E+02
 0.96312933579E+01 0.93391686282E+01 0.91556559218E+01 0.90449454225E+01 0.89930774491E+01
 0.89087362805E+01 0.89237951339E+01 0.89930774491E+01 0.91103957082E+01 0.93117341085E+01
 0.95978706241E+01 0.10048869934E+02 0.10721675037E+02 0.11847968312E+02 0.13758585000E+02
 0.17199814933E+02 0.22961793563E+02 0.35554891771E+02 0.69441559236E+02 0.13928179593E+03
 0.25138044744E+03 0.39997533454E+03 0.56783739052E+03 0.73130991435E+03 0.86676700551E+03
 0.95560639537E+03 0.98646918574E+03 0.95560639537E+03 0.86676700551E+03 0.73130991435E+03
 0.56783739052E+03 0.39997533454E+03 0.25138044744E+03 0.13928179593E+03 0.69441559236E+02
 0.35554891771E+02 0.22961793563E+02 0.17199814933E+02 0.13758585000E+02 0.11847968312E+02
 0.10721675037E+02 0.10048869934E+02 0.95978706241E+01 0.93117341085E+01 0.91103957082E+01
 0.89930774491E+01 0.89237951339E+01 0.88961248090E+01 0.89087362805E+01 0.89742473641E+01
 0.90858423761E+01 0.92920737311E+01 0.95935800746E+01 0.10053087131E+02 0.10730729411E+02
 0.11888254743E+02 0.13842576852E+02 0.17385503817E+02 0.23320026983E+02 0.36689472197E+02
 0.72605472260E+02 0.14582910457E+03 0.26249857977E+03 0.41626884661E+03 0.58918589164E+03
 0.75699606775E+03 0.89568045334E+03 0.98646918574E+03 0.10179800146E+04 0.98646918574E+03
 0.89568045334E+03 0.75699606775E+03 0.58918589164E+03 0.41626884661E+03 0.26249857977E+03
 0.14582910457E+03 0.72605472260E+02 0.36689472197E+02 0.23320026983E+02 0.17385503817E+02
 0.13842576852E+02 0.11888254743E+02 0.10730729411E+02 0.10053087131E+02 0.95935800746E+01
 0.92920737311E+01 0.90858423761E+01 0.89742473641E+01 0.89087362805E+01 0.89087362805E+01
 0.89237951339E+01 0.89930774491E+01 0.91103957082E+01 0.93117341085E+01 0.95978706241E+01
 0.10048869934E+02 0.10721675037E+02 0.11847968312E+02 0.13758585000E+02 0.17199814933E+02
 0.22961793563E+02 0.35554891771E+02 0.69441559236E+02 0.13928179593E+03 0.25138044744E+03
 0.39997533454E+03 0.56783739052E+03 0.73130991435E+03 0.86676700551E+03 0.95560639537E+03
 0.98646918574E+03 0.95560639537E+03 0.86676700551E+03 0.73130991435E+03 0.56783739052E+03
 0.39997533454E+03 0.25138044744E+03 0.13928179593E+03 0.69441559236E+02 0.35554891771E+02
 0.22961793563E+02 0.17199814933E+02 0.13758585000E+02 0.11847968312E+02 0.10721675037E+02
 0.10048869934E+02 0.95978706241E+01 0.93117341085E+01 0.91103957082E+01 0.89930774491E+01
 0.89237951339E+01 0.89742473641E+01 0.89930774491E+01 0.90449454225E+01 0.91556559218E+01
 0.93391686282E+01 0.96312933579E+01 0.10049932688E+02 0.10690698840E+02 0.11736846034E+02
 0.13521765318E+02 0.16669586895E+02 0.21970810393E+02 0.32555264596E+02 0.60917272963E+02
 0.12126255517E+03 0.22039534828E+03 0.35413093658E+03 0.50719441086E+03 0.65787402094E+03
 0.78374127942E+03 0.86676700551E+03 0.89568045334E+03 0.86676700551E+03 0.78374127942E+03
 0.65787402094E+03 0.50719441086E+03 0.35413093658E+03 0.22039534828E+03 0.12126255517E+03
 0.60917272963E+02 0.32555264596E+02 0.21970810393E+02 0.16669586895E+02 0.13521765318E+02
 0.11736846034E+02 0.10690698840E+02 0.10049932688E+02 0.96312933579E+01 0.93391686282E+01
 0.91556559218E+01 0.90449454225E+01 0.89930774491E+01 0.90858423761E+01 0.91103957082E+01
 0.91556559218E+01 0.92679175475E+01 0.94257253474E+01 0.96869911201E+01 0.10059476182E+02
 0.10657771083E+02 0.11575972101E+02 0.13170970650E+02 0.15882740976E+02 0.20529835166E+02
 0.28696242755E+02 0.49524191849E+02 0.96220638919E+02 0.17609416180E+03 0.28716674518E+03
 0.41723647025E+03 0.54756216241E+03 0.65787402094E+03 0.73130991435E+03 0.75699606775E+03
 0.73130991435E+03 0.65787402094E+03 0.54756216241E+03 0.41723647025E+03 0.28716674518E+03
 0.17609416180E+03 0.96220638919E+02 0.49524191849E+02 0.28696242755E+02 0.20529835166E+02
 0.15882740976E+02 0.13170970650E+02 0.11575972101E+02 0.10657771083E+02 0.10059476182E+02
 0.96869911201E+01 0.94257253474E+01 0.92679175475E+01 0.91556559218E+01 0.91103957082E+01
 0.92920737311E+01 0.93117341085E+01 0.93391686282E+01 0.94257253474E+01 0.95555625206E+01
 0.97933243522E+01 0.10112572154E+02 0.10628224183E+02 0.11410771718E+02 0.12753879629E+02
 0.14977391661E+02 0.18822836567E+02 0.24950942446E+02 0.38344715718E+02 0.69984014826E+02
 0.12761166851E+03 0.21144133741E+03 0.31293682852E+03 0.41723647025E+03 0.50719441086E+03
 0.56783739052E+03 0.58918589164E+03 0.56783739052E+03 0.50719441086E+03 0.41723647025E+03
 0.31293682852E+03 0.21144133741E+03 0.12761166851E+03 0.69984014826E+02 0.38344715718E+02
 0.24950942446E+02 0.18822836567E+02 0.14977391661E+02 0.12753879629E+02 0.11410771718E+02
 0.10628224183E+02 0.10112572154E+02 0.97933243522E+01 0.95555625206E+01 0.94257253474E+01
 0.93391686282E+01 0.93117341085E+01 0.95935800746E+01 0.95978706241E+01 0.96312933579E+01
 0.96869911201E+01 0.97933243522E+01 0.99514083282E+01 0.10223716364E+02 0.10633954384E+02
 0.11281831959E+02 0.12329809347E+02 0.14095417411E+02 0.17029905616E+02 0.21718837228E+02
 0.29676212440E+02 0.47927771627E+02 0.84112960205E+02 0.14019061160E+03 0.21144133741E+03
 0.28716674518E+03 0.35413093658E+03 0.39997533454E+03 0.41626884661E+03 0.39997533454E+03
 0.35413093658E+03 0.28716674518E+03 0.21144133741E+03 0.14019061160E+03 0.84112960205E+02
 0.47927771627E+02 0.29676212440E+02 0.21718837228E+02 0.17029905616E+02 0.14095417411E+02
 0.12329809347E+02 0.11281831959E+02 0.10633954384E+02 0.10223716364E+02 0.99514083282E+01
 0.97933243522E+01 0.96869911201E+01 0.96312933579E+01 0.95978706241E+01 0.10053087131E+02
 0.10048869934E+02 0.10049932688E+02 0.10059476182E+02 0.10112572154E+02 0.10223716364E+02
 0.10415004389E+02 0.10711375794E+02 0.11205947647E+02 0.11986728281E+02 0.13296891911E+02
 0.15420626628E+02 0.18853940004E+02 0.23958111800E+02 0.33054287575E+02 0.52000733302E+02
 0.84112960205E+02 0.12761166851E+03 0.17609416180E+03 0.22039534828E+03 0.25138044744E+03
 0.26249857977E+03 0.25138044744E+03 0.22039534828E+03 0.17609416180E+03 0.12761166851E+03
 0.84112960205E+02 0.52000733302E+02 0.33054287575E+02 0.23958111800E+02 0.18853940004E+02
 0.15420626628E+02 0.13296891911E+02 0.11986728281E+02 0.11205947647E+02 0.10711375794E+02
 0.10415004389E+02 0.10223716364E+02 0.10112572154E+02 0.10059476182E+02 0.10049932688E+02
 0.10048869934E+02 0.10730729411E+02 0.10721675037E+02 0.10690698840E+02 0.10657771083E+02
 0.10628224183E+02 0.10633954384E+02 0.10711375794E+02 0.10898748526E+02 0.11214147040E+02
 0.11762121264E+02 0.12651766362E+02 0.14122062166E+02 0.16425666205E+02 0.19926429980E+02
 0.24834548138E+02 0.33054287575E+02 0.47927771627E+02 0.69984014826E+02 0.96220638919E+02
 0.12126255517E+03 0.13928179593E+03 0.14582910457E+03 0.13928179593E+03 0.12126255517E+03
 0.96220638919E+02 0.69984014826E+02 0.47927771627E+02 0.33054287575E+02 0.24834548138E+02
 0.19926429980E+02 0.16425666205E+02 0.14122062166E+02 0.12651766362E+02 0.11762121264E+02
 0.11214147040E+02 0.10898748526E+02 0.10711375794E+02 0.10633954384E+02 0.10628224183E+02
 0.10657771083E+02 0.10690698840E+02 0.10721675037E+02 0.11888254743E+02 0.11847968312E+02
 0.11736846034E+02 0.11575972101E+02 0.11410771718E+02 0.11281831959E+02 0.11205947647E+02
 0.11214147040E+02 0.11357254957E+02 0.11660284393E+02 0.12215883387E+02 0.13134704442E+02
 0.14604378417E+02 0.16802630640E+02 0.19926429980E+02 0.23958111800E+02 0.29676212440E+02
 0.38344715718E+02 0.49524191849E+02 0.60917272963E+02 0.69441559236E+02 0.72605472260E+02
 0.69441559236E+02 0.60917272963E+02 0.49524191849E+02 0.38344715718E+02 0.29676212440E+02
 0.23958111800E+02 0.19926429980E+02 0.16802630640E+02 0.14604378417E+02 0.13134704442E+02
 0.12215883387E+02 0.11660284393E+02 0.11357254957E+02 0.11214147040E+02 0.11205947647E+02
 0.11281831959E+02 0.11410771718E+02 0.11575972101E+02 0.11736846034E+02 0.11847968312E+02
 0.13842576852E+02 0.13758585000E+02 0.13521765318E+02 0.13170970650E+02 0.12753879629E+02
 0.12329809347E+02 0.11986728281E+02 0.11762121264E+02 0.11660284393E+02 0.11722409340E+02
 0.11970493234E+02 0.12473567456E+02 0.13311777064E+02 0.14604378417E+02 0.16425666205E+02
 0.18853940004E+02 0.21718837228E+02 0.24950942446E+02 0.28696242755E+02 0.32555264596E+02
 0.35554891771E+02 0.36689472197E+02 0.35554891771E+02 0.32555264596E+02 0.28696242755E+02
 0.24950942446E+02 0.21718837228E+02 0.18853940004E+02 0.16425666205E+02 0.14604378417E+02
 0.13311777064E+02 0.12473567456E+02 0.11970493234E+02 0.11722409340E+02 0.11660284393E+02
 0.11762121264E+02 0.11986728281E+02 0.12329809347E+02 0.12753879629E+02 0.13170970650E+02
 0.13521765318E+02 0.13758585000E+02 0.17385503817E+02 0.17199814933E+02 0.16669586895E+02
 0.15882740976E+02 0.14977391661E+02 0.14095417411E+02 0.13296891911E+02 0.12651766362E+02
 0.12215883387E+02 0.11970493234E+02 0.11925693003E+02 0.12081917350E+02 0.12473567456E+02
 0.13134704442E+02 0.14122062166E+02 0.15420626628E+02 0.17029905616E+02 0.18822836567E+02
 0.20529835166E+02 0.21970810393E+02 0.22961793563E+02 0.23320026983E+02 0.22961793563E+02
 0.21970810393E+02 0.20529835166E+02 0.18822836567E+02 0.17029905616E+02 0.15420626628E+02
 0.14122062166E+02 0.13134704442E+02 0.12473567456E+02 0.12081917350E+02 0.11925693003E+02
 0.11970493234E+02 0.12215883387E+02 0.12651766362E+02 0.13296891911E+02 0.14095417411E+02
 0.14977391661E+02 0.15882740976E+02 0.16669586895E+02 0.17199814933E+02 0.23320026983E+02
 0.22961793563E+02 0.21970810393E+02 0.20529835166E+02 0.18822836567E+02 0.17029905616E+02
 0.15420626628E+02 0.14122062166E+02 0.13134704442E+02 0.12473567456E+02 0.12081917350E+02
 0.11925693003E+02 0.11970493234E+02 0.12215883387E+02 0.12651766362E+02 0.13296891911E+02
 0.14095417411E+02 0.14977391661E+02 0.15882740976E+02 0.16669586895E+02 0.17199814933E+02
 0.17385503817E+02 0.17199814933E+02 0.16669586895E+02 0.15882740976E+02 0.14977391661E+02
 0.14095417411E+02 0.13296891911E+02 0.12651766362E+02 0.12215883387E+02 0.11970493234E+02
 0.11925693003E+02 0.12081917350E+02 0.12473567456E+02 0.13134704442E+02 0.14122062166E+02
 0.15420626628E+02 0.17029905616E+02 0.18822836567E+02 0.20529835166E+02 0.21970810393E+02
 0.22961793563E+02 0.36689472197E+02 0.35554891771E+02 0.32555264596E+02 0.28696242755E+02
 0.24950942446E+02 0.21718837228E+02 0.18853940004E+02 0.16425666205E+02 0.14604378417E+02
 0.13311777064E+02 0.12473567456E+02 0.11970493234E+02 0.11722409340E+02 0.11660284393E+02
 0.11762121264E+02 0.11986728281E+02 0.12329809347E+02 0.12753879629E+02 0.13170970650E+02
 0.13521765318E+02 0.13758585000E+02 0.13842576852E+02 0.13758585000E+02 0.13521765318E+02
 0.13170970650E+02 0.12753879629E+02 0.12329809347E+02 0.11986728281E+02 0.11762121264E+02
 0.11660284393E+02 0.11722409340E+02 0.11970493234E+02 0.12473567456E+02 0.13311777064E+02
 0.14604378417E+02 0.16425666205E+02 0.18853940004E+02 0.21718837228E+02 0.24950942446E+02
 0.28696242755E+02 0.32555264596E+02 0.35554891771E+02 0.72605472260E+02 0.69441559236E+02
 0.60917272963E+02 0.49524191849E+02 0.38344715718E+02 0.29676212440E+02 0.23958111800E+02
 0.19926429980E+02 0.16802630640E+02 0.14604378417E+02 0.13134704442E+02 0.12215883387E+02
 0.11660284393E+02 0.11357254957E+02 0.11214147040E+02 0.11205947647E+02 0.11281831959E+02
 0.11410771718E+02 0.11575972101E+02 0.11736846034E+02 0.11847968312E+02 0.11888254743E+02
 0.11847968312E+02 0.11736846034E+02 0.11575972101E+02 0.11410771718E+02 0.11281831959E+02
 0.11205947647E+02 0.11214147040E+02 0.11357254957E+02 0.11660284393E+02 0.12215883387E+02
 0.13134704442E+02 0.14604378417E+02 0.16802630640E+02 0.19926429980E+02 0.23958111800E+02
 0.29676212440E+02 0.38344715718E+02 0.49524191849E+02 0.60917272963E+02 0.69441559236E+02
 0.14582910457E+03 0.13928179593E+03 0.12126255517E+03 0.96220638919E+02 0.69984014826E+02
 0.47927771627E+02 0.33054287575E+02 0.24834548138E+02 0.19926429980E+02 0.16425666205E+02
 0.14122062166E+02 0.12651766362E+02 0.11762121264E+02 0.11214147040E+02 0.10898748526E+02
 0.10711375794E+02 0.10633954384E+02 0.10628224183E+02 0.10657771083E+02 0.10690698840E+02
 0.10721675037E+02 0.10730729411E+02 0.10721675037E+02 0.10690698840E+02 0.10657771083E+02
 0.10628224183E+02 0.10633954384E+02 0.10711375794E+02 0.10898748526E+02 0.11214147040E+02
 0.11762121264E+02 0.12651766362E+02 0.14122062166E+02 0.16425666205E+02 0.19926429980E+02
 0.24834548138E+02 0.33054287575E+02 0.47927771627E+02 0.69984014826E+02 0.96220638919E+02
 0.12126255517E+03 0.13928179593E+03 0.26249857977E+03 0.25138044744E+03 0.22039534828E+03
 0.17609416180E+03 0.12761166851E+03 0.84112960205E+02 0.52000733302E+02 0.33054287575E+02
 0.23958111800E+02 0.18853940004E+02 0.15420626628E+02 0.13296891911E+02 0.11986728281E+02
 0.11205947647E+02 0.10711375794E+02 0.10415004389E+02 0.10223716364E+02 0.10112572154E+02
 0.10059476182E+02 0.10049932688E+02 0.10048869934E+02 0.10053087131E+02 0.10048869934E+02
 0.10049932688E+02 0.10059476182E+02 0.10112572154E+02 0.10223716364E+02 0.10415004389E+02
 0.10711375794E+02 0.11205947647E+02 0.11986728281E+02 0.13296891911E+02 0.15420626628E+02
 0.18853940004E+02 0.23958111800E+02 0.33054287575E+02 0.52000733302E+02 0.84112960205E+02
 0.12761166851E+03 0.17609416180E+03 0.22039534828E+03 0.25138044744E+03 0.41626884661E+03
 0.39997533454E+03 0.35413093658E+03 0.28716674518E+03 0.21144133741E+03 0.14019061160E+03
 0.84112960205E+02 0.47927771627E+02 0.29676212440E+02 0.21718837228E+02 0.17029905616E+02
 0.14095417411E+02 0.12329809347E+02 0.11281831959E+02 0.10633954384E+02 0.10223716364E+02
 0.99514083282E+01 0.97933243522E+01 0.96869911201E+01 0.96312933579E+01 0.95978706241E+01
 0.95935800746E+01 0.95978706241E+01 0.96312933579E+01 0.96869911201E+01 0.97933243522E+01
 0.99514083282E+01 0.10223716364E+02 0.10633954384E+02 0.11281831959E+02 0.12329809347E+02
 0.14095417411E+02 0.17029905616E+02 0.21718837228E+02 0.29676212440E+02 0.47927771627E+02
 0.84112960205E+02 0.14019061160E+03 0.21144133741E+03 0.28716674518E+03 0.35413093658E+03
 0.39997533454E+03 0.58918589164E+03 0.56783739052E+03 0.50719441086E+03 0.41723647025E+03
 0.31293682852E+03 0.21144133741E+03 0.12761166851E+03 0.69984014826E+02 0.38344715718E+02
 0.24950942446E+02 0.18822836567E+02 0.14977391661E+02 0.12753879629E+02 0.11410771718E+02
 0.10628224183E+02 0.10112572154E+02 0.97933243522E+01 0.95555625206E+01 0.94257253474E+01
 0.93391686282E+01 0.93117341085E+01 0.92920737311E+01 0.93117341085E+01 0.93391686282E+01
 0.94257253474E+01 0.95555625206E+01 0.97933243522E+01 0.10112572154E+02 0.10628224183E+02