unknown system                          
   4.96783400000000     
     0.953581    0.000000    0.000000
     0.000000    0.953581    0.000000
     0.000000    0.000000    0.644204
   Sn   O 
     2     4
Direct
  0.000000  0.000000  0.000000
  0.500000  0.500000  0.500000
  0.306119  0.306119  0.000000
  0.693881  0.693881  0.000000
  0.806119  0.193881  0.500000
  0.193881  0.806119  0.500000
 
   50   50   36
 0.90466368719E+03 0.87776063315E+03 0.80175315437E+03 0.68930327774E+03 0.55735495179E+03
 0.42284617668E+03 0.29952471609E+03 0.19664358147E+03 0.11900751715E+03 0.67278236601E+02
 0.38083630363E+02 0.24493355968E+02 0.17774479427E+02 0.13262563682E+02 0.10298211699E+02
 0.83084258617E+01 0.68820061101E+01 0.57916927571E+01 0.49276662478E+01 0.42356170522E+01
 0.36832646619E+01 0.32487545953E+01 0.29182918178E+01 0.26847013668E+01 0.25450780576E+01
 0.24985810595E+01 0.25450780457E+01 0.26847013430E+01 0.29182917826E+01 0.32487545491E+01
 0.36832646054E+01 0.42356169863E+01 0.49276661735E+01 0.57916926754E+01 0.68820060223E+01
 0.83084257691E+01 0.10298211603E+02 0.13262563584E+02 0.17774479329E+02 0.24493355871E+02
 0.38083630269E+02 0.67278236511E+02 0.11900751707E+03 0.19664358139E+03 0.29952471602E+03
 0.42284617662E+03 0.55735495174E+03 0.68930327770E+03 0.80175315434E+03 0.87776063313E+03
 0.87776063315E+03 0.85147182148E+03 0.77751720147E+03 0.66820710194E+03 0.54003174054E+03
 0.40949274269E+03 0.28999196285E+03 0.19053508176E+03 0.11574855756E+03 0.66169016058E+02
 0.38375503763E+02 0.25499351112E+02 0.19021980992E+02 0.14649585587E+02 0.11755249965E+02
 0.97678959432E+01 0.82855284206E+01 0.70932597791E+01 0.60947307224E+01 0.52482465419E+01
 0.45320626957E+01 0.39325135225E+01 0.34417616391E+01 0.30562600841E+01 0.27740957946E+01
 0.25929055275E+01 0.25096460743E+01 0.25219768548E+01 0.26301085229E+01 0.28382423149E+01
 0.31557942999E+01 0.35988482241E+01 0.41915645322E+01 0.49689885232E+01 0.59884141038E+01
 0.73609666781E+01 0.93101612118E+01 0.12236324401E+02 0.16699378623E+02 0.23312750452E+02
 0.36402966809E+02 0.64572354862E+02 0.11472276426E+03 0.19020494474E+03 0.29032666701E+03
 0.41029804120E+03 0.54102496684E+03 0.66912397968E+03 0.77818461965E+03 0.85181450036E+03
 0.80175315437E+03 0.77751720147E+03 0.70966951742E+03 0.60948547632E+03 0.49208951722E+03
 0.37266544254E+03 0.26361040184E+03 0.17329380291E+03 0.10596869706E+03 0.61950389636E+02
 0.37747756260E+02 0.26650181263E+02 0.20734894645E+02 0.16703300403E+02 0.13993102742E+02
 0.12050018279E+02 0.10500005531E+02 0.91557796045E+01 0.79467057451E+01 0.68546353329E+01
 0.58786126213E+01 0.50225203052E+01 0.42921583782E+01 0.36925946798E+01 0.32245722739E+01
 0.28828307131E+01 0.26581449747E+01 0.25420040773E+01 0.25311191307E+01 0.26295117044E+01
 0.28482656564E+01 0.32047927294E+01 0.37230439532E+01 0.44362423012E+01 0.53976940993E+01
 0.67096846067E+01 0.85772508088E+01 0.11370262781E+02 0.15618537974E+02 0.21852212400E+02
 0.33408343547E+02 0.58361709674E+02 0.10349889382E+03 0.17219854783E+03 0.26386369129E+03
 0.37392658153E+03 0.49382777531E+03 0.61117661092E+03 0.71094244476E+03 0.77818461966E+03
 0.68930327774E+03 0.66820710194E+03 0.60948547632E+03 0.52289349070E+03 0.42153826303E+03
 0.31864932336E+03 0.22512266543E+03 0.14836160177E+03 0.92041114237E+02 0.56137492367E+02
 0.37067241786E+02 0.28383911728E+02 0.23283575540E+02 0.19802570405E+02 0.17396076642E+02
 0.15540286524E+02 0.13903781098E+02 0.12339777405E+02 0.10815551597E+02 0.93487845138E+01
 0.79716561456E+01 0.67175879548E+01 0.56170135729E+01 0.46925993657E+01 0.39534287578E+01
 0.33928087062E+01 0.29926123453E+01 0.27323357598E+01 0.25982101359E+01 0.25882382914E+01
 0.27119404927E+01 0.29870250665E+01 0.34366422157E+01 0.40904406459E+01 0.49939128548E+01
 0.62336783744E+01 0.79849645304E+01 0.10570074472E+02 0.14468970548E+02 0.20166766493E+02
 0.29628044749E+02 0.49838067420E+02 0.87371974670E+02 0.14570489405E+03 0.22450837923E+03
 0.31967200900E+03 0.42348842534E+03 0.52501099762E+03 0.61117661093E+03 0.66912397970E+03
 0.55735495179E+03 0.54003174054E+03 0.49208951722E+03 0.42153826303E+03 0.33915982520E+03
 0.25591093517E+03 0.18089743759E+03 0.12030604106E+03 0.77030789520E+02 0.50585349762E+02
 0.37289266016E+02 0.31098663363E+02 0.27102556477E+02 0.24411776915E+02 0.22456888137E+02
 0.20747367555E+02 0.18999161153E+02 0.17117192535E+02 0.15124720031E+02 0.13096470935E+02
 0.11117444071E+02 0.92660773786E+01 0.76089442156E+01 0.61954592356E+01 0.50504792999E+01
 0.41704606861E+01 0.35284906618E+01 0.30872457924E+01 0.28139337295E+01 0.26909354580E+01
 0.27186144592E+01 0.29110583097E+01 0.32895850326E+01 0.38799951155E+01 0.47187362841E+01
 0.58734977110E+01 0.74830521239E+01 0.98098949999E+01 0.13264323570E+02 0.18308477437E+02
 0.25757131744E+02 0.40657176690E+02 0.69228969180E+02 0.11509655024E+03 0.17839652820E+03
 0.25573437001E+03 0.34051459014E+03 0.42348842535E+03 0.49382777534E+03 0.54102496688E+03
 0.42284617668E+03 0.40949274269E+03 0.37266544254E+03 0.31864932336E+03 0.25591093517E+03
 0.19310137687E+03 0.13743296049E+03 0.93712200943E+02 0.63891100691E+02 0.46944694697E+02
 0.39148637547E+02 0.35259492005E+02 0.32802789808E+02 0.31255976590E+02 0.30002613138E+02
 0.28553898224E+02 0.26655700860E+02 0.24276621574E+02 0.21535818903E+02 0.18618059854E+02
 0.15708489535E+02 0.12959871887E+02 0.10485496446E+02 0.83616312797E+01 0.66277619521E+01
 0.52846360032E+01 0.42976854328E+01 0.36103363042E+01 0.31635351843E+01 0.29134278687E+01
 0.28403746103E+01 0.29470500879E+01 0.32494781387E+01 0.37691072149E+01 0.45336201934E+01
 0.55915495383E+01 0.70436249138E+01 0.90872869025E+01 0.12048470984E+02 0.16335862973E+02
 0.22290510227E+02 0.32381353985E+02 0.52034528482E+02 0.85001917721E+02 0.13203821437E+03
 0.19070686906E+03 0.25573437003E+03 0.31967200902E+03 0.37392658157E+03 0.41029804125E+03
 0.29952471609E+03 0.28999196285E+03 0.26361040184E+03 0.22512266543E+03 0.18089743759E+03
 0.13743296049E+03 0.10008036130E+03 0.72206795142E+02 0.54768267382E+02 0.46242306060E+02
 0.43013502914E+02 0.41663508374E+02 0.41446777880E+02 0.41691221936E+02 0.41640859443E+02
 0.40704113271E+02 0.38594851870E+02 0.35358637347E+02 0.31297129324E+02 0.26831020291E+02
 0.22362667201E+02 0.18190791622E+02 0.14493054124E+02 0.11353612380E+02 0.87979169226E+01
 0.68113054604E+01 0.53437727977E+01 0.43166164140E+01 0.36396559603E+01 0.32337936719E+01
 0.30479043280E+01 0.30627878983E+01 0.32827390001E+01 0.37228219762E+01 0.44025923408E+01
 0.53533290344E+01 0.66405833474E+01 0.83991695926E+01 0.10865778152E+02 0.14368406043E+02
 0.19213154865E+02 0.25940945218E+02 0.38058710795E+02 0.59301584196E+02 0.91070530318E+02
 0.13203821438E+03 0.17839652823E+03 0.22450837927E+03 0.26386369134E+03 0.29032666707E+03
 0.19664358147E+03 0.19053508176E+03 0.17329380291E+03 0.14836160177E+03 0.12030604106E+03
 0.93712200943E+02 0.72206795142E+02 0.57798376751E+02 0.50564541827E+02 0.48689227909E+02
 0.49358326473E+02 0.51605730998E+02 0.54843653708E+02 0.58079763787E+02 0.60201762105E+02
 0.60293821670E+02 0.57899855010E+02 0.53146725322E+02 0.46673072091E+02 0.39385411775E+02
 0.32152064564E+02 0.25580211928E+02 0.19958778423E+02 0.15338581384E+02 0.11654853696E+02
 0.88116531562E+01 0.67068388349E+01 0.52261585101E+01 0.42433432799E+01 0.36377697578E+01
 0.33171411895E+01 0.32295555346E+01 0.33591053550E+01 0.37104473793E+01 0.42950236827E+01
 0.51297825000E+01 0.62509763387E+01 0.77395502508E+01 0.97493069845E+01 0.12515019210E+02
 0.16300577884E+02 0.21260401975E+02 0.28265069953E+02 0.40311191125E+02 0.59301584206E+02
 0.85001917740E+02 0.11509655027E+03 0.14570489409E+03 0.17219854789E+03 0.19020494481E+03
 0.11900751715E+03 0.11574855756E+03 0.10596869706E+03 0.92041114237E+02 0.77030789520E+02
 0.63891100691E+02 0.54768267382E+02 0.50564541827E+02 0.50791415084E+02 0.53906971381E+02
 0.59353100158E+02 0.66881076802E+02 0.75523369321E+02 0.83703434848E+02 0.89603132887E+02
 0.91655515707E+02 0.88951194473E+02 0.81674328092E+02 0.71039402001E+02 0.58802649819E+02
 0.46737682190E+02 0.36081595159E+02 0.27351206830E+02 0.20509417255E+02 0.15266446083E+02
 0.11311893214E+02 0.84030543391E+01 0.63496851498E+01 0.49769996489E+01 0.41180465767E+01
 0.36328210365E+01 0.34277243974E+01 0.34579072130E+01 0.37120986345E+01 0.41924745193E+01
 0.49044872490E+01 0.58621306840E+01 0.71046950068E+01 0.87181149089E+01 0.10848918035E+02
 0.13687922623E+02 0.17399068467E+02 0.22007675190E+02 0.28265069962E+02 0.38058710813E+02
 0.52034528510E+02 0.69228969218E+02 0.87371974720E+02 0.10349889388E+03 0.11472276433E+03
 0.67278236601E+02 0.66169016058E+02 0.61950389636E+02 0.56137492367E+02 0.50585349762E+02
 0.46944694697E+02 0.46242306060E+02 0.48689227909E+02 0.53906971381E+02 0.62279201602E+02
 0.74225180233E+02 0.89298127618E+02 0.10606239169E+03 0.12247758957E+03 0.13544590837E+03
 0.14161273886E+03 0.13874127663E+03 0.12687871554E+03 0.10862176769E+03 0.87944316511E+02
 0.68079810353E+02 0.50855893637E+02 0.37237837431E+02 0.27074382092E+02 0.19667942281E+02
 0.14290288587E+02 0.10407521943E+02 0.76725851932E+01 0.58326560368E+01 0.46674101184E+01
 0.39856576188E+01 0.36463676160E+01 0.35686004098E+01 0.37193944614E+01 0.40894761014E+01
 0.46747714832E+01 0.54735334931E+01 0.64959062080E+01 0.77786505802E+01 0.93978265805E+01
 0.11468054627E+02 0.14112811560E+02 0.17399068474E+02 0.21260401991E+02 0.25940945244E+02
 0.32381354020E+02 0.40657176736E+02 0.49838067477E+02 0.58361709741E+02 0.64572354940E+02
 0.38083630363E+02 0.38375503763E+02 0.37747756260E+02 0.37067241786E+02 0.37289266016E+02
 0.39148637547E+02 0.43013502914E+02 0.49358326473E+02 0.59353100158E+02 0.74225180233E+02
 0.94572015312E+02 0.12013782080E+03 0.14977821398E+03 0.17967729031E+03 0.20413740753E+03
 0.21733946985E+03 0.21514092958E+03 0.19682769992E+03 0.16622822198E+03 0.13071029779E+03
 0.97659238436E+02 0.70725408704E+02 0.50025275605E+02 0.35150432532E+02 0.24826858529E+02
 0.17666155957E+02 0.12646328968E+02 0.91456215144E+01 0.67827483962E+01 0.52710120201E+01
 0.43664501161E+01 0.38786618838E+01 0.36864858082E+01 0.37307731718E+01 0.39883399874E+01
 0.44464932108E+01 0.50927038162E+01 0.59184533614E+01 0.69288807341E+01 0.81519232623E+01
 0.96416073614E+01 0.11468054633E+02 0.13687922637E+02 0.16300577906E+02 0.19213154897E+02
 0.22290510268E+02 0.25757131796E+02 0.29628044811E+02 0.33408343620E+02 0.36402966892E+02
 0.24493355968E+02 0.25499351112E+02 0.26650181263E+02 0.28383911728E+02 0.31098663363E+02
 0.35259492005E+02 0.41663508374E+02 0.51605730998E+02 0.66881076802E+02 0.89298127618E+02
 0.12013782080E+03 0.16043854501E+03 0.20738392714E+03 0.25405822291E+03 0.29205171092E+03
 0.31379598311E+03 0.31364865508E+03 0.28936046869E+03 0.24459807256E+03 0.18959612008E+03
 0.13704909783E+03 0.95428151704E+02 0.65483608016E+02 0.44549603568E+02 0.30565437277E+02
 0.21282306379E+02 0.14997107921E+02 0.10686292454E+02 0.77786877761E+01 0.59030261119E+01
 0.47619997974E+01 0.41176239146E+01 0.38081656809E+01 0.37462790497E+01 0.38931352569E+01
 0.42276353492E+01 0.47296333378E+01 0.53793874227E+01 0.61639397314E+01 0.70830760721E+01
 0.81519232679E+01 0.93978265926E+01 0.10848918054E+02 0.12515019238E+02 0.14368406079E+02
 0.16335863019E+02 0.18308477493E+02 0.20166766559E+02 0.21852212477E+02 0.23312750538E+02
 0.17774479427E+02 0.19021980992E+02 0.20734894645E+02 0.23283575540E+02 0.27102556477E+02
 0.32802789808E+02 0.41446777880E+02 0.54843653708E+02 0.75523369321E+02 0.10606239169E+03
 0.14977821398E+03 0.20738392714E+03 0.27257604846E+03 0.33449527903E+03 0.38300751231E+03
 0.41123858930E+03 0.41396231669E+03 0.38699258691E+03 0.33138835947E+03 0.25783821475E+03
 0.18377927266E+03 0.12383885396E+03 0.82293850037E+02 0.54557827077E+02 0.36475370128E+02
 0.24886063269E+02 0.17294727006E+02 0.12188062072E+02 0.87566144681E+01 0.65287976537E+01
 0.51552252082E+01 0.43554896435E+01 0.39307539228E+01 0.37665122159E+01 0.38080876894E+01
 0.40261535195E+01 0.43947203547E+01 0.48873381612E+01 0.54817608095E+01 0.61639397360E+01
 0.69288807442E+01 0.77786505967E+01 0.87181149325E+01 0.97493070160E+01 0.10865778192E+02
 0.12048471033E+02 0.13264323628E+02 0.14468970617E+02 0.15618538053E+02 0.16699378711E+02
 0.13262563682E+02 0.14649585587E+02 0.16703300403E+02 0.19802570405E+02 0.24411776915E+02
 0.31255976590E+02 0.41691221936E+02 0.58079763787E+02 0.83703434848E+02 0.12247758957E+03
 0.17967729031E+03 0.25405822291E+03 0.33449527903E+03 0.40575396069E+03 0.45747402359E+03
 0.48658663496E+03 0.49111845599E+03 0.46547863544E+03 0.40597396987E+03 0.32050782378E+03
 0.22900257039E+03 0.15191962956E+03 0.98250435957E+02 0.63894235134E+02 0.41901938162E+02
 0.28132957542E+02 0.19343914536E+02 0.13533472482E+02 0.96469583946E+01 0.71107993074E+01
 0.55290615442E+01 0.45870088340E+01 0.40553777798E+01 0.37964397093E+01 0.37413211039E+01
 0.38531844805E+01 0.41012763172E+01 0.44548678833E+01 0.48873381649E+01 0.53793874310E+01
 0.59184533750E+01 0.64959062278E+01 0.71046950334E+01 0.77395502851E+01 0.83991696351E+01
 0.90872869538E+01 0.98098950603E+01 0.10570074542E+02 0.11370262860E+02 0.12236324489E+02
 0.10298211699E+02 0.11755249965E+02 0.13993102742E+02 0.17396076642E+02 0.22456888137E+02
 0.30002613138E+02 0.41640859443E+02 0.60201762105E+02 0.89603132887E+02 0.13544590837E+03
 0.20413740753E+03 0.29205171092E+03 0.38300751231E+03 0.45747402359E+03 0.50555855672E+03
 0.52950070103E+03 0.53260142553E+03 0.50945207971E+03 0.45164529440E+03 0.36247875710E+03
 0.26162663414E+03 0.17326304438E+03 0.11052156681E+03 0.70989808436E+02 0.46061307248E+02
 0.30637795857E+02 0.20945157670E+02 0.14610614554E+02 0.10386064669E+02 0.76169107309E+01
 0.58726270007E+01 0.48146193886E+01 0.41921613800E+01 0.38505483997E+01 0.37100730462E+01
 0.37278931483E+01 0.38694953311E+01 0.41012763200E+01 0.43947203611E+01 0.47296333486E+01
 0.50927038321E+01 0.54735335149E+01 0.58621307124E+01 0.62509763745E+01 0.66405833910E+01
 0.70436249657E+01 0.74830521844E+01 0.79849645998E+01 0.85772508871E+01 0.93101612991E+01
 0.83084258617E+01 0.97678959432E+01 0.12050018279E+02 0.15540286524E+02 0.20747367555E+02
 0.28553898224E+02 0.40704113271E+02 0.60293821670E+02 0.91655515707E+02 0.14161273886E+03
 0.21733946985E+03 0.31379598311E+03 0.41123858930E+03 0.48658663496E+03 0.52950070103E+03
 0.54577620214E+03 0.54354819336E+03 0.51959905503E+03 0.46378628592E+03 0.37601368480E+03
 0.27400157847E+03 0.18245123322E+03 0.11629802083E+03 0.74510283795E+02 0.48273324068E+02
 0.32070877651E+02 0.21934834327E+02 0.15333143994E+02 0.10928942253E+02 0.80293222993E+01
 0.61872727777E+01 0.50524167119E+01 0.43629224362E+01 0.39549540049E+01 0.37426172874E+01
 0.36792752475E+01 0.37278931502E+01 0.38531844851E+01 0.40261535275E+01 0.42276353614E+01
 0.44464932279E+01 0.46747715059E+01 0.49044872779E+01 0.51297825359E+01 0.53533290776E+01
 0.55915495894E+01 0.58734977703E+01 0.62336784420E+01 0.67096846827E+01 0.73609667626E+01
 0.68820061101E+01 0.82855284206E+01 0.10500005531E+02 0.13903781098E+02 0.18999161153E+02
 0.26655700860E+02 0.38594851870E+02 0.57899855010E+02 0.88951194473E+02 0.13874127663E+03
 0.21514092958E+03 0.31364865508E+03 0.41396231669E+03 0.49111845599E+03 0.53260142553E+03
 0.54354819336E+03 0.53399742334E+03 0.50423637920E+03 0.44682587197E+03 0.36178267869E+03
 0.26466834826E+03 0.17763593257E+03 0.11431757413E+03 0.73845498212E+02 0.48200349967E+02
 0.32261209910E+02 0.22228402494E+02 0.15660470176E+02 0.11260691681E+02 0.83511558442E+01
 0.64893883912E+01 0.53259528876E+01 0.45989478615E+01 0.41440859298E+01 0.38745911591E+01
 0.37426172885E+01 0.37100730491E+01 0.37413211093E+01 0.38080876981E+01 0.38931352695E+01
 0.39883400046E+01 0.40894761238E+01 0.41924745475E+01 0.42950237174E+01 0.44025923824E+01
 0.45336202423E+01 0.47187363406E+01 0.49939129192E+01 0.53976941717E+01 0.59884141840E+01
 0.57916927571E+01 0.70932597791E+01 0.91557796045E+01 0.12339777405E+02 0.17117192535E+02
 0.24276621574E+02 0.35358637347E+02 0.53146725322E+02 0.81674328092E+02 0.12687871554E+03
 0.19682769992E+03 0.28936046869E+03 0.38699258691E+03 0.46547863544E+03 0.50945207971E+03
 0.51959905503E+03 0.50423637920E+03 0.46696365832E+03 0.40612112511E+03 0.32496476808E+03
 0.23735142898E+03 0.16085965310E+03 0.10543505437E+03 0.69302914409E+02 0.45964211459E+02
 0.31254471823E+02 0.21847333211E+02 0.15610493754E+02 0.11402338442E+02 0.86079038511E+01
 0.68086244212E+01 0.56683838850E+01 0.49361376276E+01 0.44555926939E+01 0.41440859302E+01
 0.39549540064E+01 0.38505484028E+01 0.37964397147E+01 0.37665122243E+01 0.37462790617E+01
 0.37307731880E+01 0.37193944823E+01 0.37120986608E+01 0.37104474116E+01 0.37228220149E+01
 0.37691072604E+01 0.38799951681E+01 0.40904407058E+01 0.44362423684E+01 0.49689885978E+01
 0.49276662478E+01 0.60947307224E+01 0.79467057451E+01 0.10815551597E+02 0.15124720031E+02
 0.21535818903E+02 0.31297129324E+02 0.46673072091E+02 0.71039402001E+02 0.10862176769E+03
 0.16622822198E+03 0.24459807256E+03 0.33138835947E+03 0.40597396987E+03 0.45164529440E+03
 0.46378628592E+03 0.44682587197E+03 0.40612112511E+03 0.34566637170E+03 0.27246327697E+03
 0.19868528930E+03 0.13668516654E+03 0.92019187167E+02 0.61943595380E+02 0.42085478000E+02
 0.29294859719E+02 0.20914600710E+02 0.15257702200E+02 0.11408591804E+02 0.88451625493E+01
 0.71868060292E+01 0.61215381924E+01 0.54185743468E+01 0.49361376275E+01 0.45989478618E+01
 0.43629224373E+01 0.41921613826E+01 0.40553777844E+01 0.39307539301E+01 0.38081656913E+01
 0.36864858223E+01 0.35686004282E+01 0.34579072362E+01 0.33591053837E+01 0.32827390347E+01
 0.32494781795E+01 0.32895850799E+01 0.34366422697E+01 0.37230440141E+01 0.41915645999E+01
 0.42356170522E+01 0.52482465419E+01 0.68546353329E+01 0.93487845138E+01 0.13096470935E+02
 0.18618059854E+02 0.26831020291E+02 0.39385411775E+02 0.58802649819E+02 0.87944316511E+02
 0.13071029779E+03 0.18959612008E+03 0.25783821475E+03 0.32050782378E+03 0.36247875710E+03
 0.37601368480E+03 0.36178267869E+03 0.32496476808E+03 0.27246327697E+03 0.21298175146E+03
 0.15638847599E+03 0.11030767865E+03 0.76761150777E+02 0.53182322997E+02 0.37288479919E+02
 0.26742066351E+02 0.19620849106E+02 0.14718936068E+02 0.11363017982E+02 0.91313520947E+01
 0.76882307391E+01 0.67532423985E+01 0.61215381918E+01 0.56683838842E+01 0.53259528870E+01
 0.50524167118E+01 0.48146193897E+01 0.45870088368E+01 0.43554896486E+01 0.41176239223E+01
 0.38786618947E+01 0.36463676306E+01 0.34277244164E+01 0.32295555584E+01 0.30627879275E+01
 0.29470501227E+01 0.29110583505E+01 0.29870251135E+01 0.32047927828E+01 0.35988482838E+01
 0.36832646619E+01 0.45320626957E+01 0.58786126213E+01 0.79716561456E+01 0.11117444071E+02
 0.15708489535E+02 0.22362667201E+02 0.32152064564E+02 0.46737682190E+02 0.68079810353E+02
 0.97659238436E+02 0.13704909783E+03 0.18377927266E+03 0.22900257039E+03 0.26162663414E+03
 0.27400157847E+03 0.26466834826E+03 0.23735142898E+03 0.19868528930E+03 0.15638847599E+03
 0.11741206975E+03 0.85798404438E+02 0.61755975631E+02 0.44343182676E+02 0.32275177830E+02
 0.23969192983E+02 0.18182375421E+02 0.14139724575E+02 0.11380476772E+02 0.95721267177E+01
 0.84236278268E+01 0.76882307380E+01 0.71868060274E+01 0.68086244190E+01 0.64893883888E+01
 0.61872727756E+01 0.58726269994E+01 0.55290615442E+01 0.51552252099E+01 0.47619998014E+01
 0.43664501227E+01 0.39856576285E+01 0.36328210501E+01 0.33171412074E+01 0.30479043506E+01
 0.28403746380E+01 0.27186144924E+01 0.27119405316E+01 0.28482657012E+01 0.31557943506E+01
 0.32487545953E+01 0.39325135225E+01 0.50225203052E+01 0.67175879548E+01 0.92660773786E+01
 0.12959871887E+02 0.18190791622E+02 0.25580211928E+02 0.36081595159E+02 0.50855893637E+02
 0.70725408704E+02 0.95428151704E+02 0.12383885396E+03 0.15191962956E+03 0.17326304438E+03
 0.18245123322E+03 0.17763593257E+03 0.16085965310E+03 0.13668516654E+03 0.11030767865E+03
 0.85798404438E+02 0.65004516084E+02 0.48553266915E+02 0.36347773287E+02 0.27569015776E+02
 0.21291823600E+02 0.16814298336E+02 0.13690421717E+02 0.11616587364E+02 0.10328039059E+02
 0.95721267162E+01 0.91313520919E+01 0.88451625455E+01 0.86079038466E+01 0.83511558393E+01
 0.80293222942E+01 0.76169107262E+01 0.71107993036E+01 0.65287976511E+01 0.59030261110E+01
 0.52710120213E+01 0.46674101222E+01 0.41180465838E+01 0.36377697687E+01 0.32337936870E+01
 0.29134278884E+01 0.26909354826E+01 0.25882383212E+01 0.26295117397E+01 0.28382423557E+01
 0.29182918178E+01 0.34417616391E+01 0.42921583782E+01 0.56170135729E+01 0.76089442156E+01
 0.10485496446E+02 0.14493054124E+02 0.19958778423E+02 0.27351206830E+02 0.37237837431E+02
 0.50025275605E+02 0.65483608016E+02 0.82293850037E+02 0.98250435957E+02 0.11052156681E+03
 0.11629802083E+03 0.11431757413E+03 0.10543505437E+03 0.92019187167E+02 0.76761150777E+02
 0.61755975631E+02 0.48553266915E+02 0.37857909347E+02 0.29632596418E+02 0.23476378575E+02
 0.18950119764E+02 0.15723971814E+02 0.13565861575E+02 0.12270169592E+02 0.11616587362E+02
 0.11380476769E+02 0.11363017977E+02 0.11408591798E+02 0.11402338434E+02 0.11260691672E+02
 0.10928942244E+02 0.10386064661E+02 0.96469583860E+01 0.87566144602E+01 0.77786877693E+01
 0.67827483910E+01 0.58326560338E+01 0.49769996485E+01 0.42433432828E+01 0.36396559668E+01
 0.31635351949E+01 0.28139337447E+01 0.25982101559E+01 0.25311191557E+01 0.26301085530E+01
 0.26847013668E+01 0.30562600841E+01 0.36925946798E+01 0.46925993657E+01 0.61954592356E+01
 0.83616312797E+01 0.11353612380E+02 0.15338581384E+02 0.20509417255E+02 0.27074382092E+02
 0.35150432532E+02 0.44549603568E+02 0.54557827077E+02 0.63894235134E+02 0.70989808436E+02
 0.74510283795E+02 0.73845498212E+02 0.69302914409E+02 0.61943595380E+02 0.53182322997E+02
 0.44343182676E+02 0.36347773287E+02 0.29632596418E+02 0.24265943522E+02 0.20141681921E+02
 0.17126847565E+02 0.15109633461E+02 0.13974117546E+02 0.13565861573E+02 0.13690421713E+02
 0.14139724569E+02 0.14718936060E+02 0.15257702191E+02 0.15610493743E+02 0.15660470163E+02
 0.15333143981E+02 0.14610614541E+02 0.13533472468E+02 0.12188062058E+02 0.10686292441E+02
 0.91456215020E+01 0.76725851824E+01 0.63496851411E+01 0.52261585041E+01 0.43166164111E+01
 0.36103363050E+01 0.30872457973E+01 0.27323357692E+01 0.25420040914E+01 0.25219768737E+01
 0.25450780576E+01 0.27740957946E+01 0.32245722739E+01 0.39534287578E+01 0.50504792999E+01
 0.66277619521E+01 0.87979169226E+01 0.11654853696E+02 0.15266446083E+02 0.19667942281E+02
 0.24826858529E+02 0.30565437277E+02 0.36475370128E+02 0.41901938162E+02 0.46061307248E+02
 0.48273324068E+02 0.48200349967E+02 0.45964211459E+02 0.42085478000E+02 0.37288479919E+02
 0.32275177830E+02 0.27569015776E+02 0.23476378575E+02 0.20141681921E+02 0.17628271029E+02
 0.15965502024E+02 0.15147237819E+02 0.15109633459E+02 0.15723971810E+02 0.16814298329E+02
 0.18182375412E+02 0.19620849095E+02 0.20914600697E+02 0.21847333196E+02 0.22228402477E+02
 0.21934834308E+02 0.20945157650E+02 0.19343914516E+02 0.17294726985E+02 0.14997107900E+02
 0.12646328948E+02 0.10407521923E+02 0.84030543213E+01 0.67068388192E+01 0.53437727848E+01
 0.42976854231E+01 0.35284906559E+01 0.29926123435E+01 0.26581449773E+01 0.25096460815E+01
 0.24985810595E+01 0.25929055275E+01 0.28828307131E+01 0.33928087062E+01 0.41704606861E+01
 0.52846360032E+01 0.68113054604E+01 0.88116531562E+01 0.11311893214E+02 0.14290288587E+02
 0.17666155957E+02 0.21282306379E+02 0.24886063269E+02 0.28132957542E+02 0.30637795857E+02
 0.32070877651E+02 0.32261209910E+02 0.31254471823E+02 0.29294859719E+02 0.26742066351E+02
 0.23969192983E+02 0.21291823600E+02 0.18950119764E+02 0.17126847565E+02 0.15965502024E+02
 0.15566074389E+02 0.15965502021E+02 0.17126847560E+02 0.18950119756E+02 0.21291823590E+02
 0.23969192971E+02 0.26742066336E+02 0.29294859700E+02 0.31254471802E+02 0.32261209887E+02
 0.32070877626E+02 0.30637795830E+02 0.28132957514E+02 0.24886063240E+02 0.21282306350E+02
 0.17666155928E+02 0.14290288558E+02 0.11311893186E+02 0.88116531303E+01 0.68113054368E+01
 0.52846359825E+01 0.41704606689E+01 0.33928086928E+01 0.28828307040E+01 0.25929055229E+01
 0.25450780457E+01 0.25096460743E+01 0.26581449747E+01 0.29926123453E+01 0.35284906618E+01
 0.42976854328E+01 0.53437727977E+01 0.67068388349E+01 0.84030543391E+01 0.10407521943E+02
 0.12646328968E+02 0.14997107921E+02 0.17294727006E+02 0.19343914536E+02 0.20945157670E+02
 0.21934834327E+02 0.22228402494E+02 0.21847333211E+02 0.20914600710E+02 0.19620849106E+02
 0.18182375421E+02 0.16814298336E+02 0.15723971814E+02 0.15109633461E+02 0.15147237819E+02
 0.15965502021E+02 0.17628271024E+02 0.20141681913E+02 0.23476378564E+02 0.27569015762E+02
 0.32275177813E+02 0.37288479899E+02 0.42085477976E+02 0.45964211432E+02 0.48200349937E+02
 0.48273324036E+02 0.46061307213E+02 0.41901938126E+02 0.36475370090E+02 0.30565437239E+02
 0.24826858490E+02 0.19667942242E+02 0.15266446045E+02 0.11654853659E+02 0.87979168879E+01
 0.66277619201E+01 0.50504792710E+01 0.39534287326E+01 0.32245722528E+01 0.27740957780E+01
 0.26847013430E+01 0.25219768548E+01 0.25420040773E+01 0.27323357598E+01 0.30872457924E+01
 0.36103363042E+01 0.43166164140E+01 0.52261585101E+01 0.63496851498E+01 0.76725851932E+01
 0.91456215144E+01 0.10686292454E+02 0.12188062072E+02 0.13533472482E+02 0.14610614554E+02
 0.15333143994E+02 0.15660470176E+02 0.15610493754E+02 0.15257702200E+02 0.14718936068E+02
 0.14139724575E+02 0.13690421717E+02 0.13565861575E+02 0.13974117546E+02 0.15109633459E+02
 0.17126847560E+02 0.20141681913E+02 0.24265943511E+02 0.29632596404E+02 0.36347773268E+02
 0.44343182653E+02 0.53182322970E+02 0.61943595349E+02 0.69302914375E+02 0.73845498174E+02
 0.74510283755E+02 0.70989808393E+02 0.63894235089E+02 0.54557827030E+02 0.44549603520E+02
 0.35150432483E+02 0.27074382043E+02 0.20509417206E+02 0.15338581336E+02 0.11353612334E+02
 0.83616312360E+01 0.61954591949E+01 0.46925993286E+01 0.36925946469E+01 0.30562600556E+01
 0.29182917826E+01 0.26301085229E+01 0.25311191307E+01 0.25982101359E+01 0.28139337295E+01
 0.31635351843E+01 0.36396559603E+01 0.42433432799E+01 0.49769996489E+01 0.58326560368E+01
 0.67827483962E+01 0.77786877761E+01 0.87566144681E+01 0.96469583946E+01 0.10386064669E+02
 0.10928942253E+02 0.11260691681E+02 0.11402338442E+02 0.11408591804E+02 0.11363017982E+02
 0.11380476772E+02 0.11616587364E+02 0.12270169592E+02 0.13565861573E+02 0.15723971810E+02
 0.18950119756E+02 0.23476378564E+02 0.29632596404E+02 0.37857909328E+02 0.48553266892E+02
 0.61755975603E+02 0.76761150744E+02 0.92019195993E+02 0.10543508282E+03 0.11431761711E+03
 0.11629806304E+03 0.11052159436E+03 0.98250445839E+02 0.82293850532E+02 0.65483607957E+02
 0.50025275546E+02 0.37237837371E+02 0.27351206770E+02 0.19958778364E+02 0.14493054066E+02
 0.10485496391E+02 0.76089441632E+01 0.56170135242E+01 0.42921583336E+01 0.34417615991E+01
 0.32487545491E+01 0.28382423149E+01 0.26295117044E+01 0.25882382914E+01 0.26909354580E+01
 0.29134278687E+01 0.32337936719E+01 0.36377697578E+01 0.41180465767E+01 0.46674101184E+01
 0.52710120201E+01 0.59030261119E+01 0.65287976537E+01 0.71107993074E+01 0.76169107309E+01
 0.80293222993E+01 0.83511558442E+01 0.86079038511E+01 0.88451625493E+01 0.91313520947E+01
 0.95721267177E+01 0.10328039059E+02 0.11616587362E+02 0.13690421713E+02 0.16814298329E+02
 0.21291823590E+02 0.27569015762E+02 0.36347773268E+02 0.48553266892E+02 0.65004516056E+02
 0.85798407463E+02 0.11030771918E+03 0.13668527233E+03 0.16085982286E+03 0.17763613536E+03
 0.18245142253E+03 0.17326318138E+03 0.15191970190E+03 0.12383887753E+03 0.95428154235E+02
 0.70725408634E+02 0.50855893567E+02 0.36081595089E+02 0.25580211858E+02 0.18190791553E+02
 0.12959871820E+02 0.92660773147E+01 0.67175878946E+01 0.50225202492E+01 0.39325134712E+01
 0.36832646054E+01 0.31557942999E+01 0.28482656564E+01 0.27119404927E+01 0.27186144592E+01
 0.28403746103E+01 0.30479043280E+01 0.33171411895E+01 0.36328210365E+01 0.39856576188E+01
 0.43664501161E+01 0.47619997974E+01 0.51552252082E+01 0.55290615442E+01 0.58726270007E+01
 0.61872727777E+01 0.64893883912E+01 0.68086244212E+01 0.71868060292E+01 0.76882307391E+01
 0.84236278268E+01 0.95721267162E+01 0.11380476769E+02 0.14139724569E+02 0.18182375412E+02
 0.23969192971E+02 0.32275177813E+02 0.44343182653E+02 0.61755975603E+02 0.85798407463E+02
 0.11741212713E+03 0.15638864479E+03 0.19868559183E+03 0.23735183897E+03 0.26466879625E+03
 0.27400197813E+03 0.26162691955E+03 0.22900272399E+03 0.18377932584E+03 0.13704910376E+03
 0.97659236907E+02 0.68079810272E+02 0.46737682109E+02 0.32152064483E+02 0.22362667121E+02
 0.15708489457E+02 0.11117443996E+02 0.79716560744E+01 0.58786125546E+01 0.45320626339E+01
 0.42356169863E+01 0.35988482241E+01 0.32047927294E+01 0.29870250665E+01 0.29110583097E+01
 0.29470500879E+01 0.30627878983E+01 0.32295555346E+01 0.34277243974E+01 0.36463676160E+01
 0.38786618838E+01 0.41176239146E+01 0.43554896435E+01 0.45870088340E+01 0.48146193886E+01
 0.50524167119E+01 0.53259528876E+01 0.56683838850E+01 0.61215381924E+01 0.67532423985E+01
 0.76882307380E+01 0.91313520919E+01 0.11363017977E+02 0.14718936060E+02 0.19620849095E+02
 0.26742066336E+02 0.37288479899E+02 0.53182322970E+02 0.76761150744E+02 0.11030771918E+03
 0.15638864479E+03 0.21298210914E+03 0.27246382687E+03 0.32496544579E+03 0.36178336875E+03
 0.37601426255E+03 0.36247913931E+03 0.32050800149E+03 0.25783824758E+03 0.18959609457E+03
 0.13071027713E+03 0.87944314511E+02 0.58802649727E+02 0.39385411683E+02 0.26831020200E+02
 0.18618059765E+02 0.13096470849E+02 0.93487844322E+01 0.68546352561E+01 0.52482464703E+01
 0.49276661735E+01 0.41915645322E+01 0.37230439532E+01 0.34366422157E+01 0.32895850326E+01
 0.32494781387E+01 0.32827390001E+01 0.33591053550E+01 0.34579072130E+01 0.35686004098E+01
 0.36864858082E+01 0.38081656809E+01 0.39307539228E+01 0.40553777798E+01 0.41921613800E+01
 0.43629224362E+01 0.45989478615E+01 0.49361376276E+01 0.54185743468E+01 0.61215381918E+01
 0.71868060274E+01 0.88451625455E+01 0.11408591798E+02 0.15257702191E+02 0.20914600697E+02